LAMMPS (2 Aug 2023 - Update 1)
OMP_NUM_THREADS environment is not set. Defaulting to 1 thread. (src/comm.cpp:98)
  using 1 OpenMP thread(s) per MPI task
Loaded 1 plugins from C:\Users\88018\AppData\Local\LAMMPS 64-bit 2Aug2023\plugins
# LAMMPS input script
# author : Simon Gravelle
# lammpstutorials.github.io

# Initialisation

variable T equal 300

units metal
atom_style full
boundary p p p
pair_style airebo 2.5 1 1

# System definition
read_data cnt.data
Reading data file ...
  orthogonal box = (-30 -30 0) to (30 30 100)
  1 by 1 by 1 MPI processor grid
  reading atoms ...
  700 atoms
Finding 1-2 1-3 1-4 neighbors ...
  special bond factors lj:    0        0        0       
  special bond factors coul:  0        0        0       
     0 = max # of 1-2 neighbors
     0 = max # of 1-3 neighbors
     0 = max # of 1-4 neighbors
     1 = max # of special neighbors
  special bonds CPU = 0.001 seconds
  read_data CPU = 0.016 seconds
pair_coeff * * CH.airebo C
Reading airebo potential file CH.airebo with DATE: 2011-10-25

# Simulation settings
group gcar type 1
700 atoms in group gcar
variable zmax equal bound(gcar,zmax)-0.5
variable zmin equal bound(gcar,zmin)+0.5
region rtop block INF INF INF INF ${zmax} INF
region rtop block INF INF INF INF 55.239178 INF
region rbot block INF INF INF INF INF ${zmin}
region rbot block INF INF INF INF INF 0.5
region rmid block INF INF INF INF ${zmin} ${zmax}
region rmid block INF INF INF INF 0.5 ${zmax}
region rmid block INF INF INF INF 0.5 55.239178

group gtop region rtop
10 atoms in group gtop
group gbot region rbot
10 atoms in group gbot
group gmid region rmid
680 atoms in group gmid

velocity gmid create ${T} 48455 mom yes rot yes
velocity gmid create 300 48455 mom yes rot yes
fix mynve all nve
compute Tmid gmid temp
fix myber gmid temp/berendsen ${T} ${T} 0.1
fix myber gmid temp/berendsen 300 ${T} 0.1
fix myber gmid temp/berendsen 300 300 0.1
fix_modify myber temp Tmid

fix mysf1 gbot setforce NULL NULL 0
fix mysf2 gtop setforce NULL NULL 0
velocity gbot set NULL NULL 0
velocity gtop set NULL NULL 0

variable pos equal xcm(gtop,z)
fix at1 all ave/time 10 100 1000 v_pos file cnt_deflection.dat
fix at2 all ave/time 10 100 1000 f_mysf1[1] f_mysf2[1] file force.dat
dump mydmp all atom 5000 dump.lammpstrj

fix myrct all recenter INIT INIT NULL

thermo 100
thermo_modify temp Tmid
WARNING: Temperature for thermo pressure is not for group all (src/thermo.cpp:527)

# Run
timestep 0.0005
run 5000
Neighbor list info ...
  update: every = 1 steps, delay = 0 steps, check = yes
  max neighbors/atom: 2000, page size: 100000
  master list distance cutoff = 10.5
  ghost atom cutoff = 10.5
  binsize = 5.25, bins = 12 12 20
  1 neighbor lists, perpetual/occasional/extra = 1 0 0
  (1) pair airebo, perpetual
      attributes: full, newton on, ghost
      pair build: full/bin/ghost
      stencil: full/ghost/bin/3d
      bin: standard
Per MPI rank memory allocation (min/avg/max) = 7.246 | 7.246 | 7.246 Mbytes
   Step          Temp          E_pair         E_mol          TotEng         Press     
         0   300           -5084.7276      0             -5058.3973     -1515.7017    
       100   237.49462     -5075.4114      0             -5054.5671     -155.05545    
       200   238.86589     -5071.9168      0             -5050.9521     -498.15029    
       300   220.04074     -5067.1113      0             -5047.7989     -1514.8516    
       400   269.23434     -5069.6565      0             -5046.0264     -174.31158    
       500   274.92241     -5068.5989      0             -5044.4696     -381.28758    
       600   261.91841     -5065.985       0             -5042.9971     -1507.5577    
       700   288.47709     -5067.7301      0             -5042.4111     -312.16669    
       800   289.85177     -5066.5482      0             -5041.1086     -259.84893    
       900   279.34891     -5065.0216      0             -5040.5038     -1390.8508    
      1000   312.27343     -5067.6245      0             -5040.217      -465.74352    
      1100   296.79838     -5065.7738      0             -5039.7245     -214.26005    
      1200   270.95687     -5063.2575      0             -5039.4762     -1307.9934    
      1300   305.62464     -5066.381       0             -5039.557      -613.87963    
      1400   296.6987      -5065.1095      0             -5039.0689     -177.48003    
      1500   293.02365     -5064.7377      0             -5039.0197     -1149.4413    
      1600   314.0368      -5066.5034      0             -5038.9412     -757.72518    
      1700   288.14036     -5064.2085      0             -5038.9191     -301.80913    
      1800   301.59831     -5064.8676      0             -5038.397      -929.12184    
      1900   314.42411     -5066.1097      0             -5038.5135     -862.51837    
      2000   284.53456     -5063.9218      0             -5038.9489     -346.7093     
      2100   297.43583     -5064.557       0             -5038.4517     -812.58276    
      2200   291.11601     -5064.0011      0             -5038.4505     -930.87663    
      2300   283.85908     -5063.7144      0             -5038.8007     -493.89935    
      2400   307.56581     -5065.3507      0             -5038.3564     -600.27581    
      2500   299.55552     -5064.6856      0             -5038.3943     -940.5822     
      2600   296.0557      -5064.7583      0             -5038.7742     -659.13823    
      2700   290.20836     -5063.8619      0             -5038.391      -562.40312    
      2800   302.9251      -5064.8122      0             -5038.2252     -847.50405    
      2900   296.72482     -5064.4958      0             -5038.453      -818.37871    
      3000   293.96588     -5064.554       0             -5038.7533     -458.67518    
      3100   297.10779     -5064.5463      0             -5038.4699     -809.36811    
      3200   300.74007     -5064.9214      0             -5038.5261     -871.8059     
      3300   299.40154     -5064.7577      0             -5038.4799     -500.06162    
      3400   301.0983      -5064.7416      0             -5038.3149     -769.54147    
      3500   306.46051     -5065.1931      0             -5038.2958     -894.33383    
      3600   297.19201     -5064.6353      0             -5038.5515     -515.21286    
      3700   306.33462     -5065.1015      0             -5038.2153     -659.77037    
      3800   324.28749     -5066.638       0             -5038.1761     -868.43898    
      3900   306.35666     -5065.473       0             -5038.5848     -614.15169    
      4000   286.11603     -5063.5114      0             -5038.3997     -587.98539    
      4100   300.25618     -5064.6836      0             -5038.3309     -857.11717    
      4200   306.17205     -5065.1893      0             -5038.3173     -754.12957    
      4300   289.37711     -5063.619       0             -5038.221      -476.56254    
      4400   293.35194     -5064.2286      0             -5038.4818     -785.67337    
      4500   301.94229     -5065.2195      0             -5038.7188     -874.9217     
      4600   298.86715     -5064.8236      0             -5038.5927     -465.75249    
      4700   298.53762     -5065.0381      0             -5038.8362     -778.31269    
      4800   294.30847     -5064.2514      0             -5038.4207     -936.19214    
      4900   296.12281     -5064.5492      0             -5038.5592     -420.78715    
      5000   298.14327     -5064.4519      0             -5038.2846     -823.76253    
Loop time of 44.6137 on 1 procs for 5000 steps with 700 atoms

Performance: 4.842 ns/day, 4.957 hours/ns, 112.073 timesteps/s, 78.451 katom-step/s
62.8% CPU use with 1 MPI tasks x 1 OpenMP threads

MPI task timing breakdown:
Section |  min time  |  avg time  |  max time  |%varavg| %total
---------------------------------------------------------------
Pair    | 44.352     | 44.352     | 44.352     |   0.0 | 99.41
Bond    | 0.001843   | 0.001843   | 0.001843   |   0.0 |  0.00
Neigh   | 0          | 0          | 0          |   0.0 |  0.00
Comm    | 0.017445   | 0.017445   | 0.017445   |   0.0 |  0.04
Output  | 0.015268   | 0.015268   | 0.015268   |   0.0 |  0.03
Modify  | 0.19673    | 0.19673    | 0.19673    |   0.0 |  0.44
Other   |            | 0.03034    |            |       |  0.07

Nlocal:            700 ave         700 max         700 min
Histogram: 1 0 0 0 0 0 0 0 0 0
Nghost:            135 ave         135 max         135 min
Histogram: 1 0 0 0 0 0 0 0 0 0
Neighs:              0 ave           0 max           0 min
Histogram: 1 0 0 0 0 0 0 0 0 0
FullNghs:       109830 ave      109830 max      109830 min
Histogram: 1 0 0 0 0 0 0 0 0 0

Total # of neighbors = 109830
Ave neighs/atom = 156.9
Ave special neighs/atom = 0
Neighbor list builds = 0
Dangerous builds = 0

# 0.025 A/ps = 5 m/s
velocity gtop set NULL NULL 0.15
# 0.05 A/ps = 10 m/s
#velocity gtop set NULL NULL 0.05
run 280000
Per MPI rank memory allocation (min/avg/max) = 8.273 | 8.273 | 8.273 Mbytes
   Step          Temp          E_pair         E_mol          TotEng         Press     
      5000   298.14327     -5064.4519      0             -5038.2846     -823.76253    
      5100   298.88555     -5064.2955      0             -5038.0631     -929.10939    
      5200   312.98439     -5065.6459      0             -5038.176      -458.80503    
      5300   301.57719     -5064.5262      0             -5038.0574     -818.23556    
      5400   303.51468     -5064.6639      0             -5038.0251     -926.424      
      5500   300.35216     -5064.4373      0             -5038.0761     -491.99649    
      5600   303.08853     -5064.9022      0             -5038.3009     -798.25622    
      5700   298.12338     -5064.0091      0             -5037.8435     -951.57306    
      5800   309.37853     -5065.0057      0             -5037.8523     -535.33468    
      5900   306.24916     -5064.8119      0             -5037.9331     -715.24426    
      6000   292.51363     -5063.3932      0             -5037.7199     -967.94767    
      6100   310.49715     -5064.9403      0             -5037.6887     -577.84437    
      6200   290.76692     -5063.1651      0             -5037.6452     -774.48531    
      6300   288.25583     -5062.7218      0             -5037.4223     -1041.5781    
      6400   296.49825     -5063.4383      0             -5037.4154     -645.73701    
      6500   288.26339     -5062.6723      0             -5037.3721     -704.72163    
      6600   284.97827     -5062.2228      0             -5037.211      -1023.8159    
      6700   314.44364     -5064.6818      0             -5037.0838     -673.7402     
      6800   293.4107      -5062.9517      0             -5037.1997     -789.17272    
      6900   289.73147     -5062.8213      0             -5037.3922     -1084.9832    
      7000   293.59882     -5063.112       0             -5037.3435     -720.45242    
      7100   292.03378     -5062.3881      0             -5036.757      -699.97036    
      7200   298.74472     -5063.0961      0             -5036.8759     -1068.2767    
      7300   309.64488     -5063.8362      0             -5036.6594     -797.0564     
      7400   297.68193     -5062.9312      0             -5036.8043     -723.2599     
      7500   310.65253     -5064.0613      0             -5036.7961     -1093.7913    
      7600   310.37737     -5063.8021      0             -5036.561      -867.36705    
      7700   300.10493     -5063.0081      0             -5036.6686     -690.66477    
      7800   301.7824      -5063.1881      0             -5036.7013     -1012.2872    
      7900   313.33143     -5064.0186      0             -5036.5183     -946.04157    
      8000   309.91082     -5063.4497      0             -5036.2495     -742.20181    
      8100   311.17599     -5063.6113      0             -5036.3001     -1040.4096    
      8200   288.6922      -5061.2653      0             -5035.9275     -1022.7874    
      8300   297.27971     -5062.1306      0             -5036.0391     -725.29799    
      8400   301.24368     -5062.1555      0             -5035.7161     -988.38108    
      8500   300.81364     -5062.1781      0             -5035.7763     -1045.1377    
      8600   298.31519     -5061.9464      0             -5035.764      -728.8138     
      8700   296.63836     -5061.6025      0             -5035.5673     -999.95586    
      8800   302.15892     -5062.2427      0             -5035.7229     -1101.9834    
      8900   290.57165     -5061.0794      0             -5035.5766     -738.94499    
      9000   298.24285     -5061.785       0             -5035.6089     -969.69792    
      9100   296.60671     -5061.3896      0             -5035.3571     -1105.17      
      9200   298.3406      -5061.4959      0             -5035.3112     -817.10333    
      9300   310.74532     -5062.2058      0             -5034.9324     -1007.8945    
      9400   295.81078     -5061.0047      0             -5035.0421     -1166.2228    
      9500   305.08836     -5061.604       0             -5034.8271     -845.78286    
      9600   295.3118      -5060.8388      0             -5034.92       -957.61706    
      9700   287.21379     -5059.8178      0             -5034.6097     -1229.1342    
      9800   293.63629     -5060.5325      0             -5034.7608     -901.61683    
      9900   295.29206     -5060.3825      0             -5034.4654     -972.69731    
     10000   292.44856     -5060.0749      0             -5034.4073     -1251.2112    
     10100   305.79876     -5061.3164      0             -5034.4771     -901.24448    
     10200   294.16427     -5060.2308      0             -5034.4127     -962.49129    
     10300   294.47723     -5060.4422      0             -5034.5967     -1237.3969    
     10400   302.6901      -5060.4508      0             -5033.8844     -965.09562    
     10500   305.95285     -5060.9548      0             -5034.1021     -881.61423    
     10600   286.35718     -5058.999       0             -5033.8661     -1284.8685    
     10700   306.38052     -5060.9126      0             -5034.0223     -996.88428    
     10800   305.59759     -5060.73        0             -5033.9084     -924.53752    
     10900   286.4025      -5058.5286      0             -5033.3918     -1253.7724    
     11000   297.37133     -5059.7112      0             -5033.6116     -1039.0235    
     11100   305.3456      -5060.1123      0             -5033.3128     -972.31317    
     11200   306.48017     -5060.3063      0             -5033.4073     -1275.4355    
     11300   303.06828     -5059.627       0             -5033.0274     -1076.5823    
     11400   294.96466     -5059.0573      0             -5033.169      -969.01793    
     11500   300.4149      -5059.2131      0             -5032.8464     -1304.3292    
     11600   296.1929      -5058.5308      0             -5032.5347     -1130.5625    
     11700   297.8922      -5058.6517      0             -5032.5064     -970.20673    
     11800   307.22781     -5059.6912      0             -5032.7265     -1345.0764    
     11900   300.9391      -5059.1144      0             -5032.7017     -1165.0521    
     12000   287.93602     -5057.8973      0             -5032.6258     -925.86979    
     12100   310.31712     -5059.7529      0             -5032.5171     -1293.7586    
     12200   301.38164     -5058.8223      0             -5032.3707     -1259.651     
     12300   284.91348     -5056.9904      0             -5031.9842     -926.80035    
     12400   300.1587      -5058.2836      0             -5031.9394     -1230.5128    
     12500   294.07307     -5057.8228      0             -5032.0127     -1316.3987    
     12600   296.06304     -5057.7966      0             -5031.8118     -994.18076    
     12700   291.02787     -5057.3077      0             -5031.7648     -1246.276     
     12800   295.11845     -5057.2707      0             -5031.3688     -1324.6111    
     12900   296.12313     -5057.751       0             -5031.761      -1014.1219    
     13000   300.47138     -5058.1911      0             -5031.8194     -1252.1579    
     13100   307.4847      -5058.3099      0             -5031.3227     -1433.4097    
     13200   302.97468     -5057.8138      0             -5031.2225     -1057.0314    
     13300   304.4681      -5057.9345      0             -5031.2121     -1222.6422    
     13400   315.21764     -5058.643       0             -5030.9771     -1412.8589    
     13500   298.57886     -5057.0576      0             -5030.852      -1106.0334    
     13600   289.92514     -5056.2681      0             -5030.8221     -1246.2337    
     13700   294.50147     -5056.345       0             -5030.4973     -1454.7351    
     13800   303.59498     -5057.0822      0             -5030.4364     -1090.4563    
     13900   312.56303     -5057.8711      0             -5030.4382     -1156.5023    
     14000   295.30345     -5056.1598      0             -5030.2418     -1466.1946    
     14100   294.6624      -5055.9957      0             -5030.1339     -1196.8272    
     14200   307.85302     -5057.0117      0             -5029.9922     -1135.7279    
     14300   298.13917     -5056.0582      0             -5029.8912     -1511.2966    
     14400   295.87585     -5055.9359      0             -5029.9676     -1192.2796    
     14500   314.76643     -5057.2664      0             -5029.6401     -1187.8289    
     14600   305.87831     -5056.3897      0             -5029.5435     -1521.1266    
     14700   303.45118     -5055.8218      0             -5029.1886     -1279.7334    
     14800   309.40632     -5056.2545      0             -5029.0987     -1164.4117    
     14900   303.84861     -5055.723       0             -5029.0549     -1526.1599    
     15000   306.15949     -5055.7596      0             -5028.8887     -1318.9902    
     15100   295.18442     -5054.7622      0             -5028.8546     -1195.0718    
     15200   295.63969     -5054.8133      0             -5028.8657     -1514.11      
     15300   312.20516     -5056.2588      0             -5028.8573     -1370.1059    
     15400   295.15751     -5054.645       0             -5028.7398     -1151.763     
     15500   290.21615     -5053.8923      0             -5028.4207     -1489.1583    
     15600   288.06128     -5053.6142      0             -5028.3318     -1407.6367    
     15700   297.65198     -5054.8025      0             -5028.6783     -1223.8383    
     15800   296.27219     -5054.2543      0             -5028.2511     -1505.3885    
     15900   302.9281      -5054.8085      0             -5028.2213     -1392.7596    
     16000   292.77536     -5053.6319      0             -5027.9357     -1253.2252    
     16100   297.72022     -5053.9438      0             -5027.8136     -1494.0903    
     16200   293.38373     -5053.3635      0             -5027.6139     -1476.7756    
     16300   293.84564     -5053.2874      0             -5027.4972     -1302.6206    
     16400   288.44804     -5052.6689      0             -5027.3525     -1453.7624    
     16500   299.32572     -5053.235       0             -5026.9639     -1502.7995    
     16600   297.14244     -5052.9141      0             -5026.8346     -1317.2638    
     16700   294.89213     -5052.7598      0             -5026.8778     -1495.1293    
     16800   301.01905     -5053.1706      0             -5026.7509     -1563.1021    
     16900   300.53687     -5053.0946      0             -5026.7172     -1332.8837    
     17000   294.30875     -5052.7517      0             -5026.9209     -1441.5709    
     17100   299.37463     -5052.8686      0             -5026.5932     -1568.1677    
     17200   289.22743     -5051.9693      0             -5026.5845     -1373.9632    
     17300   296.99979     -5052.4343      0             -5026.3673     -1422.1504    
     17400   309.44498     -5053.108       0             -5025.9487     -1570.2296    
     17500   303.28615     -5052.4931      0             -5025.8744     -1427.5711    
     17600   299.69505     -5052.0222      0             -5025.7187     -1413.4149    
     17700   308.10249     -5052.6903      0             -5025.6488     -1646.9601    
     17800   300.99701     -5051.8567      0             -5025.4389     -1444.1564    
     17900   295.26071     -5051.4932      0             -5025.5789     -1420.4641    
     18000   308.43198     -5052.4229      0             -5025.3526     -1678.3403    
     18100   314.47126     -5052.6506      0             -5025.0502     -1547.4987    
     18200   305.7499      -5051.737       0             -5024.902      -1436.6005    
     18300   307.61897     -5051.9358      0             -5024.9368     -1649.8156    
     18400   299.27637     -5050.8973      0             -5024.6305     -1524.7195    
     18500   294.33089     -5050.3142      0             -5024.4815     -1441.2493    
     18600   300.35701     -5050.6911      0             -5024.3295     -1642.1817    
     18700   301.13594     -5050.5833      0             -5024.1534     -1528.2114    
     18800   289.12037     -5049.5163      0             -5024.1408     -1437.7106    
     18900   296.36179     -5050.0421      0             -5024.0311     -1639.584     
     19000   300.66342     -5050.4713      0             -5024.0828     -1592.1453    
     19100   295.87509     -5049.833       0             -5023.8648     -1520.0169    
     19200   293.94367     -5049.5661      0             -5023.7674     -1607.9527    
     19300   305.45453     -5050.4201      0             -5023.6111     -1612.0544    
     19400   299.76962     -5049.6945      0             -5023.3844     -1555.8449    
     19500   290.54507     -5048.5952      0             -5023.0947     -1678.4025    
     19600   305.68426     -5049.8288      0             -5022.9996     -1664.8017    
     19700   307.39951     -5049.5257      0             -5022.546      -1540.0687    
     19800   296.40409     -5048.652       0             -5022.6373     -1617.4704    
     19900   304.67418     -5049.3837      0             -5022.6431     -1696.5695    
     20000   297.42759     -5048.6705      0             -5022.566      -1613.782     
     20100   294.85295     -5048.3152      0             -5022.4367     -1617.9602    
     20200   303.83072     -5049.0744      0             -5022.4079     -1686.8151    
     20300   297.7136      -5048.2527      0             -5022.123      -1592.9615    
     20400   297.27476     -5048.0906      0             -5021.9995     -1637.1316    
     20500   299.84102     -5047.9516      0             -5021.6353     -1719.5169    
     20600   295.87183     -5047.3347      0             -5021.3667     -1638.5457    
     20700   303.50905     -5047.7857      0             -5021.1474     -1628.0485    
     20800   303.944       -5047.8571      0             -5021.1806     -1726.5072    
     20900   302.86893     -5047.8053      0             -5021.2232     -1688.2604    
     21000   309.51496     -5048.3491      0             -5021.1837     -1679.6349    
     21100   297.91805     -5046.9392      0             -5020.7916     -1744.651     
     21200   308.35364     -5047.636       0             -5020.5725     -1718.1067    
     21300   298.52236     -5046.7437      0             -5020.5431     -1708.5091    
     21400   294.52889     -5046.065       0             -5020.2149     -1768.6606    
     21500   306.67103     -5046.9148      0             -5019.999      -1748.3985    
     21600   304.50393     -5046.6004      0             -5019.8748     -1691.6434    
     21700   295.18925     -5045.858       0             -5019.9499     -1731.1823    
     21800   306.17957     -5046.3841      0             -5019.5115     -1767.1124    
     21900   299.91647     -5046.0531      0             -5019.7301     -1727.7354    
     22000   297.78217     -5045.5886      0             -5019.4529     -1752.5676    
     22100   294.52855     -5045.0993      0             -5019.2492     -1726.3918    
     22200   296.42391     -5045.1233      0             -5019.1069     -1724.3008    
     22300   306.63628     -5045.8204      0             -5018.9076     -1783.9051    
     22400   303.52686     -5045.412       0             -5018.7721     -1831.0196    
     22500   304.38515     -5045.3124      0             -5018.5973     -1756.8594    
     22600   297.3832      -5044.5124      0             -5018.4117     -1785.3726    
     22700   293.49127     -5044.0293      0             -5018.2703     -1828.3045    
     22800   286.11263     -5043.0577      0             -5017.9462     -1797.1287    
     22900   296.24511     -5043.9042      0             -5017.9035     -1828.2729    
     23000   301.0125      -5044.2436      0             -5017.8245     -1879.6758    
     23100   296.57216     -5043.6362      0             -5017.6068     -1722.7073    
     23200   303.66018     -5044.1886      0             -5017.5371     -1830.6234    
     23300   309.43635     -5044.3773      0             -5017.2188     -1929.9367    
     23400   294.94366     -5042.8815      0             -5016.9949     -1742.0089    
     23500   302.24984     -5043.4285      0             -5016.9008     -1822.7287    
     23600   307.74494     -5043.8343      0             -5016.8242     -1916.5734    
     23700   307.69472     -5043.6249      0             -5016.6192     -1744.9142    
     23800   305.07886     -5043.2834      0             -5016.5073     -1858.1106    
     23900   297.35587     -5042.4633      0             -5016.3651     -1971.6009    
     24000   303.31164     -5043.0117      0             -5016.3907     -1778.5966    
     24100   301.42121     -5042.5794      0             -5016.1243     -1893.7162    
     24200   293.50857     -5041.8843      0             -5016.1238     -1961.5174    
     24300   300.23431     -5042.0145      0             -5015.6636     -1873.0201    
     24400   304.28417     -5042.1167      0             -5015.4104     -1877.0273    
     24500   303.0641      -5041.7745      0             -5015.1753     -2000.5232    
     24600   296.83885     -5040.9846      0             -5014.9317     -1862.8125    
     24700   298.72686     -5041.1106      0             -5014.892      -1889.5397    
     24800   299.85591     -5041.0786      0             -5014.761      -2027.3514    
     24900   299.18209     -5040.7531      0             -5014.4946     -1884.582     
     25000   307.86803     -5041.5135      0             -5014.4927     -1887.537     
     25100   285.46664     -5039.3783      0             -5014.3235     -2036.2411    
     25200   302.26463     -5040.5836      0             -5014.0545     -1887.999     
     25300   298.58174     -5040.2272      0             -5014.0214     -1906.0024    
     25400   295.67436     -5039.6013      0             -5013.6507     -2011.7816    
     25500   309.07475     -5040.5705      0             -5013.4437     -1930.4783    
     25600   300.89872     -5039.7461      0             -5013.337      -1924.0861    
     25700   298.59806     -5039.6818      0             -5013.4746     -2027.0845    
     25800   306.71767     -5039.791       0             -5012.8712     -1966.6712    
     25900   305.5383      -5039.6737      0             -5012.8574     -1966.8261    
     26000   299.22156     -5039.2663      0             -5013.0043     -2056.2284    
     26100   304.67109     -5039.3814      0             -5012.6411     -2015.0955    
     26200   304.76348     -5038.8823      0             -5012.1339     -1977.1351    
     26300   308.88245     -5039.0751      0             -5011.9652     -2045.982     
     26400   305.53849     -5038.7037      0             -5011.8873     -2036.0876    
     26500   309.17668     -5038.6101      0             -5011.4744     -1978.5965    
     26600   297.29503     -5037.5316      0             -5011.4387     -2038.2767    
     26700   297.6588      -5037.7135      0             -5011.5887     -2049.098     
     26800   291.78993     -5036.9329      0             -5011.3232     -1988.2004    
     26900   289.76554     -5036.553       0             -5011.1209     -1998.4691    
     27000   308.21693     -5037.9756      0             -5010.9241     -2096.7506    
     27100   283.66649     -5035.7408      0             -5010.8441     -1983.9285    
     27200   293.93423     -5036.4224      0             -5010.6245     -2040.9361    
     27300   296.32891     -5036.3119      0             -5010.3038     -2129.0811    
     27400   310.24314     -5037.4735      0             -5010.2442     -2073.7288    
     27500   300.97145     -5036.2827      0             -5009.8671     -2017.748     
     27600   300.16782     -5035.9517      0             -5009.6067     -2116.2882    
     27700   293.65478     -5035.2571      0             -5009.4837     -2127.3525    
     27800   295.3383      -5035.1541      0             -5009.233      -2075.2517    
     27900   294.37206     -5035.0874      0             -5009.251      -2140.764     
     28000   286.592       -5034.2409      0             -5009.0874     -2108.5519    
     28100   294.56029     -5034.7482      0             -5008.8953     -2073.2912    
     28200   310.31182     -5035.7477      0             -5008.5124     -2185.5552    
     28300   312.44217     -5035.6725      0             -5008.2502     -2085.6827    
     28400   300.31229     -5034.5581      0             -5008.2004     -2059.8686    
     28500   299.82181     -5034.4912      0             -5008.1765     -2161.2979    
     28600   291.38075     -5033.4486      0             -5007.8748     -2119.5583    
     28700   301.0316      -5034.3719      0             -5007.9511     -2097.0371    
     28800   299.17719     -5033.9449      0             -5007.6868     -2227.2026    
     28900   287.45133     -5032.5337      0             -5007.3048     -2144.2539    
     29000   297.84624     -5033.5613      0             -5007.42       -2096.536     
     29100   288.88199     -5032.4599      0             -5007.1054     -2264.7813    
     29200   296.73848     -5032.8985      0             -5006.8545     -2153.0223    
     29300   300.72135     -5032.8346      0             -5006.441      -2092.5435    
     29400   290.16236     -5031.7711      0             -5006.3043     -2266.5444    
     29500   305.42332     -5032.6941      0             -5005.8879     -2223.7647    
     29600   290.56551     -5031.5396      0             -5006.0374     -2072.9244    
     29700   305.38145     -5032.6288      0             -5005.8262     -2294.9948    
     29800   300.87392     -5032.2059      0             -5005.7989     -2245.7863    
     29900   300.07428     -5031.7302      0             -5005.3934     -2083.2664    
     30000   296.34629     -5031.3436      0             -5005.334      -2278.5512    
     30100   299.54336     -5031.3134      0             -5005.0231     -2274.7418    
     30200   302.69399     -5031.1006      0             -5004.5338     -2080.4787    
     30300   299.26249     -5030.7902      0             -5004.5246     -2273.8611    
     30400   299.52175     -5030.3769      0             -5004.0886     -2273.1989    
     30500   293.12186     -5030.0135      0             -5004.2869     -2112.9917    
     30600   305.20346     -5030.8035      0             -5004.0165     -2300.7779    
     30700   300.75973     -5030.2356      0             -5003.8387     -2312.9893    
     30800   299.77674     -5029.9637      0             -5003.653      -2209.3795    
     30900   292.60857     -5028.9077      0             -5003.2262     -2277.995     
     31000   298.61259     -5029.1447      0             -5002.9362     -2335.2936    
     31100   295.8283      -5028.6008      0             -5002.6366     -2207.9179    
     31200   294.37457     -5028.425       0             -5002.5885     -2328.1803    
     31300   299.53366     -5028.676       0             -5002.3866     -2332.0657    
     31400   298.79605     -5028.4968      0             -5002.2721     -2226.3241    
     31500   311.37426     -5029.4457      0             -5002.1172     -2293.0487    
     31600   310.43613     -5029.3184      0             -5002.0722     -2349.3993    
     31700   301.64971     -5028.2216      0             -5001.7466     -2212.7219    
     31800   306.82697     -5028.4689      0             -5001.5394     -2309.0018    
     31900   303.55941     -5027.9438      0             -5001.3011     -2391.5044    
     32000   291.15595     -5026.7144      0             -5001.1603     -2277.3978    
     32100   315.6275      -5028.374       0             -5000.6721     -2303.1756    
     32200   305.51782     -5027.2164      0             -5000.4018     -2386.3176    
     32300   298.11298     -5026.6888      0             -5000.5241     -2323.8011    
     32400   297.32005     -5026.2071      0             -5000.1121     -2294.4413    
     32500   300.24748     -5026.5095      0             -5000.1575     -2439.6492    
     32600   302.03434     -5026.4357      0             -4999.9268     -2361.6431    
     32700   301.5344      -5026.0303      0             -4999.5653     -2331.4581    
     32800   285.71841     -5024.2305      0             -4999.1537     -2459.53      
     32900   303.51034     -5025.7569      0             -4999.1185     -2428.4751    
     33000   298.25795     -5025.067       0             -4998.8896     -2283.0152    
     33100   315.05578     -5026.3702      0             -4998.7185     -2425.6793    
     33200   303.69583     -5025.0938      0             -4998.4391     -2405.8483    
     33300   306.78653     -5025.3474      0             -4998.4215     -2300.5772    
     33400   301.75285     -5024.6248      0             -4998.1407     -2458.6772    
     33500   297.23395     -5024.4474      0             -4998.3599     -2421.0449    
     33600   300.98832     -5024.3189      0             -4997.9018     -2323.0442    
     33700   291.47662     -5023.2367      0             -4997.6545     -2481.9348    
     33800   298.57428     -5023.5175      0             -4997.3123     -2492.1385    
     33900   305.85119     -5023.9831      0             -4997.1393     -2311.9118    
     34000   288.23543     -5022.308       0             -4997.0103     -2484.8799    
     34100   301.12807     -5023.2163      0             -4996.787      -2511.257     
     34200   298.33213     -5022.781       0             -4996.5971     -2411.1642    
     34300   312.25996     -5023.4595      0             -4996.0532     -2461.618     
     34400   300.89069     -5022.3851      0             -4995.9766     -2521.7825    
     34500   304.63987     -5022.4696      0             -4995.7321     -2431.0194    
     34600   295.11431     -5021.2846      0             -4995.3832     -2482.8327    
     34700   295.33377     -5021.1759      0             -4995.2551     -2516.3271    
     34800   309.72191     -5022.2566      0             -4995.073      -2442.5268    
     34900   298.81447     -5021.1019      0             -4994.8757     -2451.6992    
     35000   297.73032     -5020.9138      0             -4994.7827     -2514.4901    
     35100   284.78053     -5019.5912      0             -4994.5966     -2493.8214    
     35200   299.94223     -5020.6122      0             -4994.287      -2441.1171    
     35300   299.35206     -5020.2991      0             -4994.0257     -2559.5158    
     35400   304.33419     -5020.5868      0             -4993.8761     -2518.7194    
     35500   306.21665     -5020.6673      0             -4993.7914     -2493.9176    
     35600   291.52393     -5019.1827      0             -4993.5963     -2539.412     
     35700   299.45746     -5019.4493      0             -4993.1666     -2558.5191    
     35800   293.72852     -5018.7107      0             -4992.9308     -2505.6522    
     35900   295.20918     -5018.5202      0             -4992.6104     -2570.9832    
     36000   298.57556     -5018.5504      0             -4992.3451     -2606.1804    
     36100   298.04361     -5018.2675      0             -4992.109      -2569.0661    
     36200   304.56169     -5018.6711      0             -4991.9405     -2574.8639    
     36300   302.84042     -5018.3343      0             -4991.7547     -2578.7443    
     36400   292.90623     -5017.4608      0             -4991.7531     -2580.063     
     36500   293.16892     -5017.1195      0             -4991.3888     -2536.9091    
     36600   301.59646     -5017.5552      0             -4991.0848     -2577.2386    
     36700   301.75486     -5017.3926      0             -4990.9083     -2570.0955    
     36800   291.77356     -5016.0232      0             -4990.4149     -2595.8688    
     36900   295.61316     -5016.2915      0             -4990.3462     -2636.3888    
     37000   295.98086     -5016.1481      0             -4990.1706     -2562.0393    
     37100   302.4486      -5016.4403      0             -4989.8951     -2590.0884    
     37200   294.54156     -5015.7427      0             -4989.8915     -2644.6318    
     37300   309.32838     -5016.6415      0             -4989.4925     -2629.007     
     37400   303.17744     -5015.9722      0             -4989.363      -2638.0812    
     37500   295.4867      -5014.9631      0             -4989.0289     -2633.4924    
     37600   306.89791     -5015.5464      0             -4988.6107     -2649.3092    
     37700   296.11954     -5014.425       0             -4988.4353     -2660.0485    
     37800   297.7793      -5014.3674      0             -4988.232      -2690.2774    
     37900   301.92547     -5014.6939      0             -4988.1946     -2594.3361    
     38000   299.22444     -5014.2107      0             -4987.9485     -2673.5183    
     38100   297.33224     -5013.644       0             -4987.5479     -2708.9383    
     38200   295.06317     -5013.2821      0             -4987.3851     -2605.7648    
     38300   294.29743     -5012.9248      0             -4987.095      -2633.8741    
     38400   302.53764     -5013.5642      0             -4987.0111     -2746.0462    
     38500   294.10569     -5012.5309      0             -4986.718      -2571.9194    
     38600   286.47244     -5011.4673      0             -4986.3243     -2683.1154    
     38700   302.80147     -5012.6896      0             -4986.1134     -2756.5318    
     38800   294.26702     -5011.9287      0             -4986.1016     -2658.5649    
     38900   311.05558     -5013.0256      0             -4985.725      -2675.0429    
     39000   296.71047     -5011.6343      0             -4985.5927     -2783.9553    
     39100   300.98182     -5011.5834      0             -4985.167      -2733.6344    
     39200   300.31264     -5011.2216      0             -4984.8639     -2662.4907    
     39300   304.43606     -5011.362       0             -4984.6424     -2779.9851    
     39400   302.84324     -5010.8147      0             -4984.2349     -2753.9008    
     39500   307.65402     -5011.3431      0             -4984.341      -2697.1439    
     39600   310.11031     -5011.3046      0             -4984.087      -2830.1583    
     39700   296.46608     -5009.6111      0             -4983.591      -2755.983     
     39800   307.05717     -5010.5407      0             -4983.591      -2663.3515    
     39900   297.48029     -5009.4523      0             -4983.3432     -2815.8981    
     40000   303.85417     -5009.6224      0             -4982.9539     -2777.3356    
     40100   292.59891     -5008.434       0             -4982.7532     -2665.6449    
     40200   289.57444     -5007.9603      0             -4982.545      -2851.3645    
     40300   284.0213      -5007.1153      0             -4982.1874     -2833.0509    
     40400   310.6689      -5009.2188      0             -4981.9521     -2687.8471    
     40500   297.08939     -5008.1224      0             -4982.0476     -2849.1137    
     40600   296.00653     -5007.6199      0             -4981.6402     -2841.3135    
     40700   302.43317     -5007.8081      0             -4981.2643     -2698.0534    
     40800   292.02395     -5006.8178      0             -4981.1875     -2896.6565    
     40900   298.99845     -5007.0004      0             -4980.758      -2884.3588    
     41000   285.7718      -5005.4311      0             -4980.3496     -2736.965     
     41100   305.39952     -5007.0362      0             -4980.232      -2890.3704    
     41200   296.3161      -5005.9986      0             -4979.9917     -2844.5       
     41300   294.46092     -5005.7041      0             -4979.86       -2724.9042    
     41400   304.22414     -5006.1841      0             -4979.483      -2904.0676    
     41500   296.36286     -5005.0999      0             -4979.0888     -2919.455     
     41600   297.86108     -5005.2626      0             -4979.12       -2742.8239    
     41700   298.00452     -5005.0233      0             -4978.8681     -2841.3284    
     41800   301.92773     -5005.038       0             -4978.5386     -2974.0939    
     41900   295.99682     -5004.3425      0             -4978.3636     -2762.2721    
     42000   313.14622     -5005.7747      0             -4978.2906     -2859.0503    
     42100   292.69858     -5003.4766      0             -4977.7871     -2995.9358    
     42200   282.84772     -5002.6581      0             -4977.8332     -2795.3651    
     42300   304.85188     -5003.9397      0             -4977.1835     -2909.8921    
     42400   306.881       -5003.7075      0             -4976.7733     -3022.6082    
     42500   297.11167     -5002.7894      0             -4976.7126     -2849.4069    
     42600   312.16047     -5003.8963      0             -4976.4987     -2822.2865    
     42700   301.80405     -5002.8535      0             -4976.3649     -3053.4926    
     42800   308.24133     -5002.9566      0             -4975.9029     -2862.1915    
     42900   297.88454     -5001.8166      0             -4975.672      -2837.5423    
     43000   301.44489     -5001.8057      0             -4975.3486     -2997.3584    
     43100   303.19162     -5001.6436      0             -4975.0332     -2914.1807    
     43200   291.04897     -5000.3968      0             -4974.8521     -2841.2669    
     43300   295.8598      -5000.4101      0             -4974.4432     -3010.8312    
     43400   305.03463     -5001.1171      0             -4974.3449     -2938.0064    
     43500   285.6632      -4999.4728      0             -4974.4008     -2855.3732    
     43600   293.12376     -4999.7799      0             -4974.0531     -3010.8823    
     43700   300.18402     -4999.8524      0             -4973.506      -3007.2262    
     43800   298.06393     -4999.6833      0             -4973.5229     -2916.2965    
     43900   294.60731     -4998.9602      0             -4973.1032     -3025.6078    
     44000   300.51339     -4999.1039      0             -4972.7285     -3048.5882    
     44100   294.47472     -4998.2905      0             -4972.4451     -2894.9358    
     44200   296.57615     -4998.1402      0             -4972.1104     -3052.0368    
     44300   294.24081     -4997.6083      0             -4971.7835     -3030.4511    
     44400   300.30628     -4998.0935      0             -4971.7363     -2911.002     
     44500   295.68086     -4997.4026      0             -4971.4514     -3022.6629    
     44600   300.15257     -4997.6005      0             -4971.2568     -3072.5161    
     44700   300.2705      -4997.4251      0             -4971.071      -2944.5491    
     44800   305.85772     -4997.6216      0             -4970.7772     -3038.8991    
     44900   297.37234     -4996.3221      0             -4970.2225     -3062.2446    
     45000   293.37277     -4995.9505      0             -4970.2019     -2930.0391    
     45100   298.75854     -4996.0435      0             -4969.8221     -3054.4108    
     45200   294.46428     -4995.5205      0             -4969.6761     -3092.2759    
     45300   305.47144     -4996.1554      0             -4969.3449     -2976.2943    
     45400   299.41824     -4995.6245      0             -4969.3452     -3064.6979    
     45500   302.58782     -4995.546       0             -4968.9886     -3143.138     
     45600   295.9872      -4994.5178      0             -4968.5397     -3030.2887    
     45700   306.70699     -4995.0034      0             -4968.0845     -3042.7039    
     45800   286.80865     -4993.1153      0             -4967.9427     -3128.9689    
     45900   291.24273     -4993.1972      0             -4967.6355     -3069.2296    
     46000   285.1736      -4992.4096      0             -4967.3806     -3114.8915    
     46100   303.18504     -4993.7525      0             -4967.1427     -3123.183     
     46200   308.49139     -4994.3009      0             -4967.2253     -3052.1022    
     46300   300.53809     -4993.17        0             -4966.7925     -3079.9056    
     46400   302.65753     -4993.0251      0             -4966.4615     -3138.7527    
     46500   297.22018     -4992.1518      0             -4966.0655     -3093.9945    
     46600   300.57309     -4991.9127      0             -4965.5321     -3044.7082    
     46700   299.07141     -4991.7696      0             -4965.5209     -3143.538     
     46800   294.3675      -4991.1714      0             -4965.3355     -3186.1646    
     46900   296.79264     -4991.2703      0             -4965.2215     -3113.8452    
     47000   304.13529     -4991.4683      0             -4964.775      -3098.172     
     47100   295.43748     -4990.6286      0             -4964.6987     -3121.9806    
     47200   303.84503     -4990.8228      0             -4964.1551     -3165.5063    
     47300   292.20025     -4989.5364      0             -4963.8907     -3181.2282    
     47400   304.88479     -4990.3465      0             -4963.5875     -3180.6608    
     47500   299.22998     -4989.3247      0             -4963.0619     -3169.7479    
     47600   317.84903     -4990.7648      0             -4962.8679     -3175.4354    
     47700   303.24602     -4989.3626      0             -4962.7474     -3200.5285    
     47800   304.45774     -4989.4443      0             -4962.7228     -3150.1694    
     47900   290.57303     -4987.9123      0             -4962.4094     -3134.3068    
     48000   307.45936     -4989.1585      0             -4962.1735     -3209.9131    
     48100   292.61439     -4987.5597      0             -4961.8776     -3143.2241    
     48200   294.49646     -4987.4896      0             -4961.6424     -3251.6584    
     48300   304.51546     -4987.9129      0             -4961.1863     -3230.1215    
     48400   294.24387     -4986.8073      0             -4960.9822     -3130.2798    
     48500   304.26286     -4987.3795      0             -4960.675      -3211.7198    
     48600   295.74412     -4986.2944      0             -4960.3377     -3300.2331    
     48700   317.62753     -4988.2885      0             -4960.4111     -3186.9365    
     48800   308.52607     -4986.9117      0             -4959.8331     -3188.5329    
     48900   297.45612     -4985.552       0             -4959.445      -3313.4645    
     49000   293.07977     -4984.9241      0             -4959.2011     -3225.5839    
     49100   291.82127     -4984.408       0             -4958.7955     -3219.1778    
     49200   293.15363     -4984.2245      0             -4958.4951     -3298.9166    
     49300   305.29711     -4985.1793      0             -4958.3841     -3244.6268    
     49400   295.19013     -4984.0291      0             -4958.121      -3170.4716    
     49500   306.30287     -4984.7304      0             -4957.8469     -3349.1975    
     49600   308.12065     -4984.5527      0             -4957.5097     -3291.0157    
     49700   291.16272     -4982.9397      0             -4957.3851     -3184.0169    
     49800   293.08969     -4982.84        0             -4957.1162     -3298.4843    
     49900   288.24643     -4981.9795      0             -4956.6807     -3305.5005    
     50000   295.49148     -4982.1531      0             -4956.2185     -3212.5149    
     50100   298.18442     -4982.2362      0             -4956.0653     -3285.0765    
     50200   305.63062     -4982.4909      0             -4955.6664     -3301.8324    
     50300   294.54385     -4981.5841      0             -4955.7327     -3232.2502    
     50400   285.74374     -4980.439       0             -4955.3599     -3354.3917    
     50500   300.63426     -4981.4288      0             -4955.0429     -3385.2979    
     50600   302.70777     -4981.2639      0             -4954.696      -3253.3821    
     50700   293.13932     -4980.0775      0             -4954.3493     -3348.8265    
     50800   294.61327     -4979.9831      0             -4954.1256     -3389.2112    
     50900   306.15118     -4980.585       0             -4953.7149     -3254.1751    
     51000   296.86348     -4979.3491      0             -4953.2941     -3360.2117    
     51100   300.89366     -4979.4604      0             -4953.0517     -3383.0454    
     51200   308.49983     -4980.0083      0             -4952.932      -3286.6369    
     51300   303.6237      -4979.3971      0             -4952.7488     -3399.1425    
     51400   297.38675     -4978.6032      0             -4952.5023     -3379.4262    
     51500   291.34755     -4977.3806      0             -4951.8097     -3192.6304    
     51600   292.67988     -4977.4756      0             -4951.7878     -3322.8964    
     51700   293.63959     -4977.2626      0             -4951.4905     -3497.9923    
     51800   295.77428     -4977.0853      0             -4951.1259     -3259.3339    
     51900   300.10871     -4977.0389      0             -4950.699      -3356.588     
     52000   299.37646     -4976.8237      0             -4950.5482     -3503.8298    
     52100   301.24216     -4976.7569      0             -4950.3176     -3316.341     
     52200   306.01066     -4976.9604      0             -4950.1025     -3362.8717    
     52300   299.39006     -4975.9053      0             -4949.6285     -3551.812     
     52400   313.29471     -4976.761       0             -4949.2639     -3319.4265    
     52500   307.91187     -4976.0577      0             -4949.033      -3343.0279    
     52600   301.52566     -4975.2443      0             -4948.7801     -3565.5996    
     52700   299.11596     -4974.9032      0             -4948.6505     -3418.5364    
     52800   300.47013     -4974.4314      0             -4948.0598     -3334.6631    
     52900   306.26987     -4974.7921      0             -4947.9116     -3484.4452    
     53000   306.1352      -4974.4879      0             -4947.6192     -3425.6093    
     53100   299.90286     -4973.6628      0             -4947.341      -3343.7236    
     53200   295.71886     -4972.8883      0             -4946.9337     -3470.4944    
     53300   301.70883     -4973.0304      0             -4946.5502     -3401.293     
     53400   296.94005     -4972.4849      0             -4946.4231     -3382.5409    
     53500   306.27968     -4973.1175      0             -4946.2361     -3520.7952    
     53600   294.71897     -4971.5869      0             -4945.7201     -3467.8911    
     53700   290.36798     -4970.8549      0             -4945.37       -3436.6028    
     53800   291.74361     -4970.713       0             -4945.1073     -3456.09      
     53900   287.54677     -4970.0003      0             -4944.763      -3480.2089    
     54000   309.56578     -4971.633       0             -4944.4632     -3528.8028    
     54100   303.60388     -4970.891       0             -4944.2444     -3494.2045    
     54200   287.34331     -4969.1517      0             -4943.9322     -3477.363     
     54300   304.39321     -4970.2812      0             -4943.5653     -3455.6431    
     54400   299.17661     -4969.5544      0             -4943.2964     -3568.5089    
     54500   306.56306     -4969.8328      0             -4942.9264     -3507.7457    
     54600   311.5292      -4970.1987      0             -4942.8565     -3448.1351    
     54700   298.9141      -4968.6402      0             -4942.4052     -3496.7847    
     54800   295.74895     -4968.1292      0             -4942.172      -3471.6168    
     54900   299.99592     -4968.0919      0             -4941.762      -3523.823     
     55000   306.83321     -4968.5323      0             -4941.6023     -3543.9951    
     55100   307.66702     -4968.2293      0             -4941.2261     -3530.2499    
     55200   307.5066      -4968.0787      0             -4941.0895     -3538.1062    
     55300   303.05282     -4967.2654      0             -4940.6672     -3532.4977    
     55400   296.5652      -4966.302       0             -4940.2732     -3546.9574    
     55500   292.29469     -4965.6731      0             -4940.0191     -3542.7562    
     55600   293.9694      -4965.7367      0             -4939.9357     -3535.943     
     55700   313.26593     -4966.8913      0             -4939.3967     -3609.3222    
     55800   290.40162     -4964.5739      0             -4939.086      -3649.2194    
     55900   308.65399     -4965.7126      0             -4938.6228     -3534.0154    
     56000   295.79195     -4964.3155      0             -4938.3545     -3564.5461    
     56100   298.1005      -4964.4767      0             -4938.3132     -3594.3474    
     56200   307.54711     -4964.9049      0             -4937.9122     -3547.6495    
     56300   294.33624     -4963.2538      0             -4937.4206     -3532.3127    
     56400   297.79584     -4963.3521      0             -4937.2153     -3626.8665    
     56500   301.1237      -4963.332       0             -4936.9031     -3537.0162    
     56600   304.36905     -4963.4998      0             -4936.7861     -3565.481     
     56700   307.0719      -4963.1422      0             -4936.1912     -3660.2946    
     56800   295.45592     -4961.8296      0             -4935.8981     -3604.2199    
     56900   311.33699     -4962.9571      0             -4935.6317     -3532.667     
     57000   301.95976     -4961.6699      0             -4935.1676     -3649.1727    
     57100   309.02225     -4962.2662      0             -4935.144      -3643.7528    
     57200   309.48585     -4961.9646      0             -4934.8018     -3555.5233    
     57300   304.33668     -4961.1244      0             -4934.4135     -3680.8976    
     57400   293.47341     -4959.7323      0             -4933.9748     -3644.645     
     57500   286.72497     -4959.0029      0             -4933.8377     -3628.2768    
     57600   297.96866     -4959.5256      0             -4933.3736     -3680.9727    
     57700   298.82892     -4959.2034      0             -4932.9759     -3632.637     
     57800   308.56624     -4959.6671      0             -4932.5849     -3575.0045    
     57900   296.51019     -4958.6036      0             -4932.5796     -3685.8345    
     58000   303.71563     -4958.8086      0             -4932.1522     -3744.498     
     58100   291.93443     -4957.51        0             -4931.8876     -3565.8147    
     58200   299.64652     -4957.8548      0             -4931.5555     -3663.7427    
     58300   306.50735     -4958.1785      0             -4931.277      -3726.1036    
     58400   294.02314     -4956.9659      0             -4931.1602     -3628.5414    
     58500   296.5021      -4956.9006      0             -4930.8773     -3685.9628    
     58600   291.40151     -4955.9251      0             -4930.3495     -3734.6055    
     58700   296.35823     -4956.2286      0             -4930.2179     -3634.5631    
     58800   305.84303     -4956.4774      0             -4929.6342     -3696.9947    
     58900   303.95865     -4955.992       0             -4929.3143     -3791.3897    
     59000   301.96504     -4955.6196      0             -4929.1169     -3671.0855    
     59100   308.59522     -4955.7065      0             -4928.6218     -3697.6669    
     59200   298.30403     -4954.4664      0             -4928.2849     -3785.213     
     59300   304.33518     -4954.9967      0             -4928.2859     -3677.4556    
     59400   309.65115     -4954.9644      0             -4927.7871     -3736.4965    
     59500   292.41209     -4952.9774      0             -4927.3131     -3765.504     
     59600   309.04081     -4954.2074      0             -4927.0837     -3664.4424    
     59700   295.17715     -4952.67        0             -4926.763      -3708.9386    
     59800   311.19186     -4953.681       0             -4926.3684     -3782.9439    
     59900   307.49149     -4953.092       0             -4926.1042     -3750.6626    
     60000   308.60539     -4952.9155      0             -4925.8299     -3684.503     
     60100   304.84265     -4952.189       0             -4925.4337     -3771.6878    
     60200   299.68893     -4951.6254      0             -4925.3224     -3763.7179    
     60300   303.92605     -4951.5367      0             -4924.8619     -3717.6487    
     60400   296.48531     -4950.6872      0             -4924.6654     -3832.1665    
     60500   287.98659     -4949.5317      0             -4924.2558     -3773.1718    
     60600   293.03978     -4949.4607      0             -4923.7413     -3758.9062    
     60700   301.48611     -4950.0953      0             -4923.6346     -3856.4673    
     60800   307.7837      -4950.1831      0             -4923.1696     -3790.2175    
     60900   303.90899     -4949.6339      0             -4922.9605     -3765.2581    
     61000   313.80951     -4950.1652      0             -4922.6229     -3795.0834    
     61100   308.25775     -4949.3196      0             -4922.2645     -3856.5186    
     61200   294.68595     -4947.8012      0             -4921.9373     -3775.4088    
     61300   302.60715     -4948.142       0             -4921.5829     -3781.562     
     61400   289.22438     -4946.6177      0             -4921.2331     -3868.3622    
     61500   303.50597     -4947.6611      0             -4921.0231     -3830.8251    
     61600   297.34688     -4946.6618      0             -4920.5644     -3763.1005    
     61700   301.08225     -4946.7363      0             -4920.311      -3892.55      
     61800   305.18774     -4946.5754      0             -4919.7898     -3839.7915    
     61900   299.26413     -4945.853       0             -4919.5873     -3792.871     
     62000   291.93008     -4944.9943      0             -4919.3723     -3936.0673    
     62100   294.54514     -4944.8971      0             -4919.0456     -3854.1649    
     62200   292.99484     -4944.33        0             -4918.6146     -3813.0925    
     62300   298.03268     -4944.4803      0             -4918.3226     -3883.9964    
     62400   300.07481     -4944.2062      0             -4917.8694     -3941.7776    
     62500   299.5387      -4943.8497      0             -4917.5599     -3789.7615    
     62600   304.33026     -4943.9695      0             -4917.2592     -3859.4832    
     62700   308.51414     -4944.016       0             -4916.9385     -3970.9813    
     62800   300.84918     -4942.8475      0             -4916.4427     -3840.5009    
     62900   303.62896     -4942.9994      0             -4916.3506     -3857.9351    
     63000   293.77079     -4941.7072      0             -4915.9237     -3964.848     
     63100   301.7106      -4942.0662      0             -4915.5858     -3849.9019    
     63200   288.77926     -4940.7301      0             -4915.3847     -3830.5399    
     63300   299.27911     -4941.3086      0             -4915.0416     -3988.8842    
     63400   300.78921     -4941.2172      0             -4914.8176     -3847.1397    
     63500   292.09693     -4940.0613      0             -4914.4246     -3863.8826    
     63600   296.25186     -4940.1458      0             -4914.1444     -4003.601     
     63700   292.49074     -4939.4089      0             -4913.7377     -3907.7584    
     63800   295.88199     -4939.237       0             -4913.2681     -3912.1667    
     63900   284.09965     -4937.82        0             -4912.8853     -4022.8659    
     64000   298.63524     -4938.8064      0             -4912.5959     -3902.9482    
     64100   306.83906     -4939.1271      0             -4912.1966     -3915.5278    
     64200   298.10518     -4938.0939      0             -4911.9299     -4037.706     
     64300   306.35554     -4938.468       0             -4911.5799     -3966.1692    
     64400   291.98147     -4936.8442      0             -4911.2177     -3891.2098    
     64500   306.61874     -4937.6481      0             -4910.7369     -4004.7059    
     64600   295.72054     -4936.2717      0             -4910.317      -3995.1825    
     64700   307.06253     -4937.0737      0             -4910.1236     -3858.9754    
     64800   303.63673     -4936.4039      0             -4909.7545     -4008.609     
     64900   296.46498     -4935.3021      0             -4909.2821     -4012.2305    
     65000   297.64511     -4935.3356      0             -4909.212      -3863.9432    
     65100   305.56151     -4935.816       0             -4908.9975     -4033.2361    
     65200   295.55146     -4934.6406      0             -4908.7007     -4070.4497    
     65300   296.82282     -4934.3745      0             -4908.3231     -3904.4013    
     65400   298.07068     -4933.9632      0             -4907.8022     -4051.0749    
     65500   292.87093     -4933.2598      0             -4907.5552     -4098.3793    
     65600   305.14921     -4933.914       0             -4907.1318     -3885.1906    
     65700   300.001       -4933.2508      0             -4906.9204     -4057.3742    
     65800   294.56041     -4932.359       0             -4906.5062     -4127.8706    
     65900   296.53318     -4932.4187      0             -4906.3927     -3942.8321    
     66000   310.23635     -4932.9264      0             -4905.6977     -4010.1826    
     66100   297.23702     -4931.4239      0             -4905.3361     -4131.3574    
     66200   295.95886     -4931.0997      0             -4905.124      -4007.1162    
     66300   301.96502     -4931.1778      0             -4904.6751     -3967.7809    
     66400   299.18407     -4930.5345      0             -4904.2758     -4126.8323    
     66500   303.90392     -4930.683       0             -4904.0101     -4054.4862    
     66600   300.7896      -4930.0676      0             -4903.668      -3987.2705    
     66700   292.00422     -4928.8489      0             -4903.2204     -4088.2192    
     66800   298.39466     -4929.0598      0             -4902.8704     -4072.0342    
     66900   297.66951     -4928.7861      0             -4902.6604     -4041.5555    
     67000   302.77295     -4928.8438      0             -4902.2702     -4125.8128    
     67100   298.16775     -4927.885       0             -4901.7156     -4091.1981    
     67200   297.0296      -4927.5578      0             -4901.4882     -4058.8799    
     67300   302.58448     -4927.9706      0             -4901.4134     -4103.8024    
     67400   300.43086     -4927.1542      0             -4900.7861     -4118.5052    
     67500   305.41184     -4927.1358      0             -4900.3306     -4079.8772    
     67600   300.16603     -4926.3393      0             -4899.9944     -4108.871     
     67700   310.9837      -4927.322       0             -4900.0277     -4152.3482    
     67800   295.14573     -4925.292       0             -4899.3878     -4110.2038    
     67900   296.03622     -4925.0814      0             -4899.099      -4059.2997    
     68000   300.37035     -4924.9965      0             -4898.6338     -4125.0839    
     68100   299.38493     -4924.8921      0             -4898.6157     -4124.7792    
     68200   299.3285      -4924.2277      0             -4897.9563     -4106.9288    
     68300   304.03935     -4924.4074      0             -4897.7226     -4157.5425    
     68400   302.72207     -4923.9986      0             -4897.4294     -4132.6533    
     68500   293.20024     -4922.7248      0             -4896.9913     -4121.4587    
     68600   295.71369     -4922.7169      0             -4896.7628     -4202.1907    
     68700   298.54692     -4922.4901      0             -4896.2874     -4147.5496    
     68800   306.68779     -4922.9459      0             -4896.0286     -4104.1065    
     68900   285.12374     -4920.7092      0             -4895.6845     -4192.3535    
     69000   293.68371     -4920.8097      0             -4895.0338     -4231.7842    
     69100   306.51459     -4921.5906      0             -4894.6886     -4103.3152    
     69200   316.22499     -4922.184       0             -4894.4297     -4217.7469    
     69300   308.05696     -4920.9841      0             -4893.9467     -4232.3009    
     69400   299.76224     -4920.1475      0             -4893.8381     -4120.7096    
     69500   301.6241      -4920.0752      0             -4893.6024     -4205.5023    
     69600   296.9404      -4919.3365      0             -4893.2747     -4277.846     
     69700   293.5562      -4918.5191      0             -4892.7543     -4120.337     
     69800   298.71203     -4918.481       0             -4892.2637     -4148.282     
     69900   312.19069     -4919.4451      0             -4892.0449     -4345.4211    
     70000   298.42722     -4917.7944      0             -4891.6022     -4171.7598    
     70100   297.76417     -4917.5348      0             -4891.4007     -4169.0478    
     70200   305.77199     -4917.8871      0             -4891.0502     -4311.5691    
     70300   294.20318     -4916.5991      0             -4890.7776     -4196.4538    
     70400   275.31109     -4914.6221      0             -4890.4587     -4178.4668    
     70500   286.72517     -4915.2925      0             -4890.1273     -4345.7053    
     70600   297.40557     -4915.5432      0             -4889.4406     -4165.3279    
     70700   301.53348     -4915.5463      0             -4889.0814     -4161.6247    
     70800   299.12227     -4915.0012      0             -4888.748      -4366.8279    
     70900   294.17862     -4914.2207      0             -4888.4014     -4261.3535    
     71000   303.79907     -4914.8833      0             -4888.2196     -4167.9966    
     71100   293.16917     -4913.3228      0             -4887.592      -4309.2664    
     71200   302.18097     -4913.6839      0             -4887.1622     -4306.9999    
     71300   305.13188     -4913.6592      0             -4886.8785     -4157.4347    
     71400   299.09154     -4912.8449      0             -4886.5943     -4348.6533    
     71500   301.62486     -4912.9071      0             -4886.4342     -4312.744     
     71600   311.07994     -4913.2164      0             -4885.9136     -4140.961     
     71700   300.47399     -4911.7715      0             -4885.3996     -4395.481     
     71800   296.43434     -4911.4046      0             -4885.3873     -4342.6106    
     71900   286.64071     -4910.0123      0             -4884.8545     -4160.7592    
     72000   306.25631     -4911.3821      0             -4884.5027     -4362.2899    
     72100   294.99082     -4909.7459      0             -4883.8553     -4402.1915    
     72200   303.84191     -4910.3833      0             -4883.7158     -4253.512     
     72300   301.90895     -4909.615       0             -4883.1172     -4376.116     
     72400   312.34858     -4910.1747      0             -4882.7606     -4404.9338    
     72500   305.29578     -4909.3603      0             -4882.5652     -4228.4137    
     72600   296.32141     -4908.2807      0             -4882.2733     -4374.9381    
     72700   307.88038     -4908.8509      0             -4881.8289     -4424.3505    
     72800   304.75006     -4908.5413      0             -4881.7941     -4234.0982    
     72900   299.31633     -4907.5997      0             -4881.3294     -4335.1882    
     73000   296.5098      -4906.6187      0             -4880.5947     -4490.5439    
     73100   293.69279     -4906.277       0             -4880.5003     -4275.9739    
     73200   292.47296     -4905.6749      0             -4880.0053     -4270.6399    
     73300   299.116       -4905.7192      0             -4879.4665     -4447.247     
     73400   301.55512     -4905.6134      0             -4879.1466     -4310.1059    
     73500   293.53984     -4904.7241      0             -4878.9608     -4340.9664    
     73600   302.24775     -4905.1214      0             -4878.5938     -4470.2708    
     73700   310.42953     -4905.3463      0             -4878.1007     -4346.5737    
     73800   293.34576     -4903.5725      0             -4877.8263     -4339.5122    
     73900   300.4345      -4903.7472      0             -4877.3788     -4456.3629    
     74000   296.2988      -4903.112       0             -4877.1066     -4433.7561    
     74100   304.57163     -4903.3695      0             -4876.638      -4356.017     
     74200   290.81706     -4901.6508      0             -4876.1264     -4434.4387    
     74300   306.31443     -4902.7598      0             -4875.8753     -4450.1302    
     74400   302.12151     -4902.1717      0             -4875.6552     -4386.2395    
     74500   305.12499     -4901.8917      0             -4875.1116     -4429.8673    
     74600   307.47977     -4901.6477      0             -4874.661      -4414.2973    
     74700   299.14957     -4900.7139      0             -4874.4582     -4403.0581    
     74800   310.98036     -4901.338       0             -4874.044      -4459.0474    
     74900   296.12853     -4899.6096      0             -4873.6191     -4459.9998    
     75000   299.07029     -4899.4656      0             -4873.2169     -4414.4492    
     75100   287.42196     -4898.1082      0             -4872.8819     -4421.3518    
     75200   298.13594     -4898.8118      0             -4872.6451     -4540.6278    
     75300   297.64199     -4898.1705      0             -4872.0472     -4442.1811    
     75400   301.84551     -4898.2662      0             -4871.774      -4399.04      
     75500   301.01952     -4897.7884      0             -4871.3687     -4483.4026    
     75600   307.26261     -4897.8845      0             -4870.9167     -4494.4051    
     75700   313.49646     -4898.099       0             -4870.5842     -4451.7385    
     75800   304.76304     -4896.9313      0             -4870.1829     -4536.219     
     75900   305.06587     -4896.6379      0             -4869.863      -4488.0941    
     76000   306.08246     -4896.2045      0             -4869.3404     -4435.5778    
     76100   300.48821     -4895.4368      0             -4869.0637     -4535.7625    
     76200   307.74747     -4895.6077      0             -4868.5974     -4533.6123    
     76300   303.76206     -4895.1323      0             -4868.4718     -4428.425     
     76400   295.13048     -4893.841       0             -4867.9381     -4519.0677    
     76500   299.1159      -4893.9481      0             -4867.6954     -4571.2303    
     76600   303.42482     -4893.7833      0             -4867.1524     -4427.6034    
     76700   296.70988     -4892.9792      0             -4866.9377     -4460.9699    
     76800   295.87584     -4892.3801      0             -4866.4118     -4598.0425    
     76900   293.3208      -4891.8029      0             -4866.0588     -4483.5732    
     77000   296.31055     -4891.8292      0             -4865.8227     -4528.8413    
     77100   282.594       -4890.0783      0             -4865.2756     -4620.2786    
     77200   304.51159     -4891.6275      0             -4864.9013     -4457.0541    
     77300   298.59295     -4890.7161      0             -4864.5093     -4502.4976    
     77400   295.97727     -4890.1446      0             -4864.1673     -4671.0169    
     77500   289.19395     -4889.1803      0             -4863.7985     -4532.81      
     77600   293.05424     -4889.2099      0             -4863.4892     -4457.0838    
     77700   283.28904     -4887.7133      0             -4862.8497     -4637.9315    
     77800   296.30521     -4888.4437      0             -4862.4377     -4577.9285    
     77900   306.97951     -4889.338       0             -4862.3952     -4435.1195    
     78000   299.58211     -4888.1162      0             -4861.8226     -4646.6852    
     78100   303.07774     -4887.9083      0             -4861.3079     -4635.9949    
     78200   298.00181     -4887.2463      0             -4861.0914     -4429.9047    
     78300   301.16191     -4887.2135      0             -4860.7813     -4629.7289    
     78400   298.66947     -4886.5316      0             -4860.318      -4641.3624    
     78500   313.35565     -4887.5366      0             -4860.0342     -4488.5233    
     78600   295.12188     -4885.5551      0             -4859.6529     -4638.7322    
     78700   288.3501      -4884.5286      0             -4859.2208     -4677.0565    
     78800   302.01556     -4885.3141      0             -4858.8069     -4515.7629    
     78900   296.32072     -4884.3762      0             -4858.3689     -4699.6978    
     79000   303.22795     -4884.4262      0             -4857.8126     -4667.1137    
     79100   304.75186     -4884.396       0             -4857.6487     -4479.3266    
     79200   301.93648     -4883.3861      0             -4856.8859     -4699.0988    
     79300   304.4767      -4883.448       0             -4856.7248     -4719.7284    
     79400   289.89507     -4881.7347      0             -4856.2913     -4528.6468    
     79500   299.56469     -4882.31        0             -4856.0179     -4655.0886    
     79600   304.33153     -4882.2761      0             -4855.5657     -4724.9263    
     79700   299.51239     -4881.521       0             -4855.2335     -4594.0728    
     79800   297.21297     -4880.9536      0             -4854.868      -4589.283     
     79900   299.61209     -4880.599       0             -4854.3028     -4724.4143    
     80000   302.66971     -4880.7045      0             -4854.1399     -4608.0526    
     80100   313.64141     -4881.1842      0             -4853.6566     -4600.4418    
     80200   296.11598     -4879.3331      0             -4853.3437     -4730.3767    
     80300   309.35915     -4880.0196      0             -4852.8679     -4679.1577    
     80400   294.58331     -4878.5982      0             -4852.7433     -4616.7023    
     80500   298.45638     -4878.6021      0             -4852.4073     -4779.0803    
     80600   288.18203     -4877.2324      0             -4851.9393     -4697.2982    
     80700   306.50816     -4878.4175      0             -4851.516      -4619.6908    
     80800   304.10548     -4877.6364      0             -4850.9458     -4769.1446    
     80900   300.33605     -4876.8308      0             -4850.471      -4689.4552    
     81000   309.29197     -4877.1732      0             -4850.0273     -4597.3133    
     81100   291.10644     -4875.2275      0             -4849.6778     -4787.3861    
     81200   307.78507     -4876.5666      0             -4849.553      -4760.6973    
     81300   299.98624     -4875.3678      0             -4849.0387     -4568.8366    
     81400   303.97514     -4875.4411      0             -4848.7619     -4739.4298    
     81500   294.63868     -4873.9818      0             -4848.1221     -4794.0728    
     81600   296.76224     -4873.6748      0             -4847.6287     -4662.2194    
     81700   297.62661     -4873.5327      0             -4847.4107     -4726.7776    
     81800   297.18879     -4872.954       0             -4846.8705     -4802.9371    
     81900   305.31575     -4873.1344      0             -4846.3375     -4712.5792    
     82000   315.15317     -4873.6372      0             -4845.977      -4766.1134    
     82100   301.36718     -4872.4284      0             -4845.9781     -4767.0869    
     82200   296.72392     -4871.5095      0             -4845.4668     -4767.2274    
     82300   291.57253     -4870.4938      0             -4844.9031     -4749.9308    
     82400   293.03882     -4870.1077      0             -4844.3884     -4770.3218    
     82500   301.38485     -4870.4038      0             -4843.952      -4776.5805    
     82600   314.37967     -4871.1122      0             -4843.5198     -4778.4867    
     82700   296.57993     -4869.1419      0             -4843.1118     -4805.0486    
     82800   312.31104     -4870.1386      0             -4842.7278     -4806.2366    
     82900   295.93438     -4868.4144      0             -4842.441      -4751.8873    
     83000   311.22017     -4869.3653      0             -4842.0503     -4836.3121    
     83100   296.45163     -4867.5516      0             -4841.5328     -4806.2489    
     83200   301.03977     -4867.7669      0             -4841.3453     -4701.9843    
     83300   296.16822     -4866.8417      0             -4840.8477     -4782.8376    
     83400   320.6442      -4868.6706      0             -4840.5284     -4858.064     
     83500   293.01095     -4866.0605      0             -4840.3436     -4790.5667    
     83600   296.70223     -4865.6878      0             -4839.647      -4792.9145    
     83700   286.79768     -4864.4015      0             -4839.23       -4847.7297    
     83800   294.58649     -4864.6975      0             -4838.8423     -4803.6674    
     83900   306.15009     -4865.3966      0             -4838.5265     -4834.9359    
     84000   297.08802     -4864.1705      0             -4838.0958     -4841.9976    
     84100   295.87767     -4863.6357      0             -4837.6672     -4836.8603    
     84200   309.06715     -4864.3793      0             -4837.2533     -4805.6197    
     84300   304.97318     -4863.5672      0             -4836.8005     -4873.8565    
     84400   298.79167     -4862.7396      0             -4836.5153     -4859.65      
     84500   305.20743     -4862.7356      0             -4835.9483     -4839.608     
     84600   308.41442     -4862.5996      0             -4835.5308     -4875.7475    
     84700   309.62887     -4862.3088      0             -4835.1334     -4827.245     
     84800   299.40931     -4861.1636      0             -4834.8852     -4834.9971    
     84900   309.12141     -4861.7734      0             -4834.6426     -4857.0525    
     85000   298.27033     -4860.3281      0             -4834.1496     -4893.692     
     85100   300.90807     -4860.0362      0             -4833.6262     -4832.245     
     85200   296.77849     -4859.5462      0             -4833.4987     -4899.1814    
[...]
    264000   308.88047     -5029.8943      0             -5002.7846     -120.73069    
    264100   299.06702     -5029.6779      0             -5003.4295     -358.2915     
    264200   308.4761      -5029.1987      0             -5002.1245     -244.24402    
    264300   302.28374     -5029.4849      0             -5002.9542     -232.13553    
    264400   300.91258     -5027.6016      0             -5001.1912     -383.1497     
    264500   303.81339     -5028.5001      0             -5001.8351     -271.21455    
    264600   306.87179     -5029.9931      0             -5003.0597     -205.78848    
    264700   300.52428     -5028.6289      0             -5002.2526     -296.19351    
    264800   298.17555     -5028.4775      0             -5002.3073     -78.594669    
    264900   312.25121     -5029.5985      0             -5002.1929      28.65234     
    265000   300.2637      -5029.8188      0             -5003.4653      23.720971    
    265100   302.93469     -5029.8838      0             -5003.2959      115.79403    
    265200   291.00385     -5028.6008      0             -5003.0601      193.45572    
    265300   297.01154     -5028.1696      0             -5002.1016      123.91761    
    265400   289.10057     -5028.564       0             -5003.1904      264.99291    
    265500   286.1723      -5029.3398      0             -5004.2231      332.02928    
    265600   297.17343     -5029.1279      0             -5003.0457      262.5919     
    265700   311.29728     -5028.6568      0             -5001.3349      163.24043    
    265800   312.30969     -5029.5551      0             -5002.1445      222.77405    
    265900   309.74773     -5029.6804      0             -5002.4946      103.96954    
    266000   309.15399     -5028.8265      0             -5001.6928      149.54212    
    266100   300.06958     -5030.1805      0             -5003.8441      70.956375    
    266200   289.39565     -5029.6463      0             -5004.2468     -92.825872    
    266300   299.06842     -5028.6213      0             -5002.3728     -236.30975    
    266400   317.77044     -5029.8674      0             -5001.9775     -124.65416    
    266500   294.44456     -5028.049       0             -5002.2063     -266.97072    
    266600   296.7662      -5028.4743      0             -5002.4279     -411.27126    
    266700   291.04014     -5028.2142      0             -5002.6703     -184.35554    
    266800   307.87366     -5027.8324      0             -5000.811      -314.12809    
    266900   283.28869     -5026.1746      0             -5001.311      -304.00572    
    267000   307.41937     -5029.4217      0             -5002.4402     -44.346318    
    267100   300.98767     -5029.4223      0             -5003.0053     -114.49879    
    267200   307.1747      -5029.8545      0             -5002.8945     -55.736981    
    267300   293.0376      -5028.103       0             -5002.3838      107.60078    
    267400   297.0692      -5029.499       0             -5003.4259      52.17724     
    267500   294.21717     -5028.8969      0             -5003.0742     -23.444242    
    267600   294.28189     -5029.1928      0             -5003.3644      213.04722    
    267700   283.73687     -5027.7526      0             -5002.8496      152.78043    
    267800   298.4991      -5029.5095      0             -5003.3109      134.31327    
    267900   279.05116     -5026.0087      0             -5001.517       344.45577    
    268000   295.69678     -5030.1903      0             -5004.2377      316.4006     
    268100   305.09208     -5028.09        0             -5001.3128      139.69571    
    268200   307.41727     -5030.2982      0             -5003.3169      248.23173    
    268300   296.22695     -5029.0638      0             -5003.0646      98.936994    
    268400   290.44882     -5027.6983      0             -5002.2063     -55.324984    
    268500   309.87568     -5030.7949      0             -5003.5978      72.525684    
    268600   304.9353      -5029.6686      0             -5002.9052     -101.66483    
    268700   301.5732      -5029.9713      0             -5003.5029     -181.59045    
    268800   290.34025     -5028.6852      0             -5003.2027     -101.59218    
    268900   307.30996     -5029.6538      0             -5002.682      -267.8758     
    269000   302.87755     -5029.1104      0             -5002.5275     -381.13834    
    269100   308.9927      -5030.4505      0             -5003.3309     -169.86677    
    269200   286.60079     -5027.4472      0             -5002.2929     -297.5422     
    269300   301.71287     -5029.239       0             -5002.7584     -242.35497    
    269400   315.501       -5030.0509      0             -5002.3602     -119.2946     
    269500   310.07032     -5029.8482      0             -5002.6341     -36.041333    
    269600   279.32532     -5027.0112      0             -5002.4954     -123.51104    
    269700   293.98862     -5029.1908      0             -5003.3881      61.936462    
    269800   290.0755      -5026.8737      0             -5001.4145      174.03196    
    269900   307.2896      -5030.7257      0             -5003.7556     -6.1654999    
    270000   298.60788     -5028.8038      0             -5002.5957      166.24157    
    270100   321.28136     -5031.5166      0             -5003.3185      220.563      
    270200   291.5906      -5030.5378      0             -5004.9456      272.31236    
    270300   306.97575     -5032.0381      0             -5005.0955      294.16592    
    270400   319.25206     -5032.1862      0             -5004.1662      253.19953    
    270500   308.78288     -5031.4405      0             -5004.3394      222.00895    
    270600   312.28741     -5034.4481      0             -5007.0394      204.04947    
    270700   307.04808     -5031.9353      0             -5004.9864      34.910388    
    270800   275.3394      -5029.8844      0             -5005.7185     -73.101885    
    270900   301.8319      -5031.707       0             -5005.2159     -9.8936332    
    271000   309.56339     -5032.8238      0             -5005.6542     -111.32331    
    271100   293.32333     -5030.833       0             -5005.0887     -299.29425    
    271200   321.69321     -5035.0539      0             -5006.8197     -157.88451    
    271300   287.08942     -5032.4615      0             -5007.2644     -242.71198    
    271400   285.10021     -5030.9634      0             -5005.9408     -446.39549    
    271500   301.47555     -5032.7993      0             -5006.3395     -253.22378    
    271600   290.08497     -5032.3793      0             -5006.9193     -223.93947    
    271700   302.29729     -5033.1755      0             -5006.6436     -211.09755    
    271800   292.07781     -5031.836       0             -5006.201      -111.03556    
    271900   296.3025      -5031.3212      0             -5005.3154     -27.071554    
    272000   289.3838      -5033.4373      0             -5008.0387      31.353943    
    272100   304.05812     -5031.8228      0             -5005.1363      102.78757    
    272200   312.22548     -5034.5315      0             -5007.1282      171.47941    
    272300   297.68592     -5031.441       0             -5005.3138      147.50855    
    272400   286.66825     -5030.9048      0             -5005.7446      236.44188    
    272500   284.07027     -5032.1972      0             -5007.265       169.55738    
    272600   293.13381     -5032.8484      0             -5007.1207      105.64601    
    272700   295.15681     -5031.9843      0             -5006.0791      123.36983    
    272800   281.89071     -5033.0871      0             -5008.3462      198.84707    
    272900   286.48992     -5033.4532      0             -5008.3087      156.9328     
    273000   290.3945      -5032.422       0             -5006.9348      138.27111    
    273100   293.52237     -5032.5477      0             -5006.7859      6.4138648    
    273200   301.03013     -5032.3265      0             -5005.9058      25.505799    
    273300   299.13427     -5031.5623      0             -5005.308      -186.76613    
    273400   299.18745     -5031.9629      0             -5005.704      -137.89419    
    273500   306.00203     -5032.9418      0             -5006.0847     -178.09372    
    273600   306.5494      -5031.7297      0             -5004.8246     -236.2873     
    273700   316.93719     -5032.113       0             -5004.2962     -157.79334    
    273800   323.6901      -5033.1304      0             -5004.7209     -318.30502    
    273900   309.61469     -5034.2017      0             -5007.0276     -233.41968    
    274000   285.00285     -5033.0491      0             -5008.0351     -203.07927    
    274100   306.747       -5034.1872      0             -5007.2647     -201.45791    
    274200   298.53533     -5033.2601      0             -5007.0584     -228.68481    
    274300   309.24969     -5033.493       0             -5006.3508      115.94232    
    274400   309.95691     -5033.8743      0             -5006.6701     -13.874375    
    274500   277.20147     -5031.9876      0             -5007.6583      75.712741    
    274600   302.49517     -5033.3088      0             -5006.7595      214.37778    
    274700   284.91508     -5034.0192      0             -5009.0129      133.70862    
    274800   302.98557     -5035.1666      0             -5008.5743      175.16712    
    274900   302.60656     -5032.495       0             -5005.9359      223.30332    
    275000   293.32456     -5033.1236      0             -5007.3792      87.125321    
    275100   317.70051     -5035.1481      0             -5007.2643      140.64138    
    275200   279.2857      -5030.4683      0             -5005.9561      225.84504    
    275300   292.78324     -5032.0159      0             -5006.319       67.489251    
    275400   290.20694     -5030.1334      0             -5004.6627      61.834702    
    275500   312.4003      -5034.229       0             -5006.8104      83.223123    
    275600   295.3976      -5031.5755      0             -5005.6492     -30.216486    
    275700   305.06572     -5034.2263      0             -5007.4514     -129.55053    
    275800   293.6799      -5031.1839      0             -5005.4083     -259.21066    
    275900   312.39625     -5032.1275      0             -5004.7092     -201.44253    
    276000   281.50783     -5031.641       0             -5006.9337     -277.27487    
    276100   301.97929     -5034.1568      0             -5007.6527     -157.17487    
    276200   300.70457     -5032.1661      0             -5005.7739     -257.73651    
    276300   303.92607     -5033.916       0             -5007.2411     -172.30962    
    276400   290.80123     -5030.4243      0             -5004.9013     -152.1922     
    276500   302.17134     -5031.9272      0             -5005.4063     -104.70367    
    276600   305.77315     -5034.6168      0             -5007.7798     -131.13596    
    276700   297.51997     -5034.6826      0             -5008.57        43.458726    
    276800   300.42176     -5034.3495      0             -5007.9822      72.431498    
    276900   305.16297     -5033.4693      0             -5006.6858      109.04798    
    277000   301.77606     -5032.1944      0             -5005.7082      249.6976     
    277100   301.78079     -5031.4346      0             -5004.948       154.36745    
    277200   310.37584     -5033.8421      0             -5006.6011      156.54966    
    277300   306.55802     -5033.7124      0             -5006.8065      249.13745    
    277400   295.02527     -5032.6324      0             -5006.7387      164.06787    
    277500   291.69234     -5034.0728      0             -5008.4717      58.336396    
    277600   290.19079     -5032.5625      0             -5007.0931      166.51549    
    277700   318.00201     -5033.1027      0             -5005.1924      126.45094    
    277800   304.11331     -5031.9806      0             -5005.2893     -14.474471    
    277900   296.81913     -5031.0628      0             -5005.0117      166.41639    
    278000   306.83196     -5033.6566      0             -5006.7267     -139.32523    
    278100   293.43908     -5033.545       0             -5007.7906     -107.59464    
    278200   299.79062     -5034.0574      0             -5007.7455     -107.95548    
    278300   310.08176     -5033.4418      0             -5006.2267     -305.47149    
    278400   301.55835     -5033.2071      0             -5006.7401     -359.27296    
    278500   306.99781     -5032.2572      0             -5005.3127     -53.898125    
    278600   269.0766      -5032.7104      0             -5009.0942     -157.48851    
    278700   284.89795     -5031.6504      0             -5006.6456     -221.26044    
    278800   295.23425     -5031.2395      0             -5005.3275     -84.403472    
    278900   301.33533     -5034.2245      0             -5007.777      -117.61919    
    279000   290.61867     -5030.05        0             -5004.5431     -37.70179     
    279100   302.57674     -5031.816       0             -5005.2596      63.317627    
    279200   314.5316      -5033.045       0             -5005.4393      22.328776    
    279300   307.50333     -5032.9861      0             -5005.9972      134.60281    
    279400   301.66155     -5032.8525      0             -5006.3764      310.67484    
    279500   295.46169     -5033.8308      0             -5007.8988      218.18581    
    279600   286.41404     -5032.8705      0             -5007.7326      144.65449    
    279700   313.79553     -5034.7166      0             -5007.1755      268.97621    
    279800   305.19543     -5032.7842      0             -5005.9979      161.02315    
    279900   296.81313     -5031.4175      0             -5005.3669      22.565841    
    280000   294.109       -5031.3657      0             -5005.5525      147.18259    
    280100   301.66353     -5032.022       0             -5005.5457     -71.167974    
    280200   293.06317     -5033.9654      0             -5008.2439     -20.31766     
    280300   320.33347     -5034.2151      0             -5006.1002      36.282522    
    280400   307.90913     -5032.5141      0             -5005.4897     -136.14353    
    280500   313.95063     -5033.2121      0             -5005.6574     -177.33859    
    280600   318.29597     -5035.0394      0             -5007.1033     -87.212415    
    280700   289.73826     -5031.8403      0             -5006.4107     -265.51693    
    280800   294.08133     -5034.2573      0             -5008.4465     -264.12289    
    280900   306.30001     -5034.6566      0             -5007.7734     -229.80089    
    281000   299.98297     -5032.808       0             -5006.4792     -92.830156    
    281100   295.97544     -5032.1471      0             -5006.1701     -191.99214    
    281200   300.92248     -5035.0045      0             -5008.5932     -58.883078    
    281300   296.95838     -5035.1724      0             -5009.1091      0.80803511   
    281400   299.80894     -5032.9753      0             -5006.6618     -62.390072    
    281500   318.49317     -5034.6607      0             -5006.7073      33.076425    
    281600   301.27898     -5033.053       0             -5006.6105      80.119417    
    281700   301.0079      -5034.6745      0             -5008.2558      35.433078    
    281800   303.83299     -5033.9545      0             -5007.2877      185.69032    
    281900   305.94059     -5035.0677      0             -5008.2161      251.4008     
    282000   285.95744     -5033.6597      0             -5008.5619      73.33343     
    282100   293.14798     -5032.9439      0             -5007.215       262.63307    
    282200   287.93016     -5030.4893      0             -5005.2183      253.33287    
    282300   283.41904     -5031.9772      0             -5007.1021     -59.391083    
    282400   304.99385     -5032.3543      0             -5005.5857      81.6338      
    282500   299.58641     -5032.7616      0             -5006.4677      134.55295    
    282600   312.65399     -5033.2107      0             -5005.7698     -185.23128    
    282700   291.54955     -5032.2681      0             -5006.6795     -106.12828    
    282800   300.69769     -5031.9558      0             -5005.5643      49.153729    
    282900   293.25316     -5032.8212      0             -5007.0831     -317.82682    
    283000   283.35201     -5033.1695      0             -5008.3004     -185.45168    
    283100   302.05057     -5035.2674      0             -5008.7571     -130.77547    
    283200   280.26144     -5031.826       0             -5007.2281     -317.06373    
    283300   292.10512     -5033.383       0             -5007.7457     -242.46573    
    283400   289.96425     -5033.2182      0             -5007.7687     -109.50505    
    283500   304.35554     -5034.8861      0             -5008.1735     -161.3133     
    283600   301.51792     -5033.7712      0             -5007.3077     -52.068609    
    283700   294.80769     -5034.9287      0             -5009.0541      106.26078    
    283800   284.95656     -5034.9233      0             -5009.9134      45.855108    
    283900   304.6869      -5033.6058      0             -5006.8641     -27.129164    
    284000   283.4533      -5034.2444      0             -5009.3664      228.23794    
    284100   284.93333     -5030.705       0             -5005.6971      72.806809    
    284200   286.90015     -5031.0012      0             -5005.8207      113.34609    
    284300   314.27616     -5034.5709      0             -5006.9876      325.29361    
    284400   300.39182     -5032.094       0             -5005.7293      161.69637    
    284500   300.71201     -5032.5148      0             -5006.122       89.134383    
    284600   300.73097     -5033.7845      0             -5007.3901      198.61686    
    284700   331.51056     -5033.3316      0             -5004.2357      20.196142    
    284800   289.13358     -5030.7388      0             -5005.3622     -107.33382    
    284900   318.09747     -5034.6201      0             -5006.7014      44.931059    
    285000   301.44548     -5035.2829      0             -5008.8257     -70.904306    
Loop time of 2930.68 on 1 procs for 280000 steps with 700 atoms

Performance: 4.127 ns/day, 5.815 hours/ns, 95.541 timesteps/s, 66.879 katom-step/s
54.5% CPU use with 1 MPI tasks x 1 OpenMP threads

MPI task timing breakdown:
Section |  min time  |  avg time  |  max time  |%varavg| %total
---------------------------------------------------------------
Pair    | 2910.8     | 2910.8     | 2910.8     |   0.0 | 99.32
Bond    | 0.12363    | 0.12363    | 0.12363    |   0.0 |  0.00
Neigh   | 2.9057     | 2.9057     | 2.9057     |   0.0 |  0.10
Comm    | 1.0567     | 1.0567     | 1.0567     |   0.0 |  0.04
Output  | 1.8066     | 1.8066     | 1.8066     |   0.0 |  0.06
Modify  | 11.736     | 11.736     | 11.736     |   0.0 |  0.40
Other   |            | 2.23       |            |       |  0.08

Nlocal:            700 ave         700 max         700 min
Histogram: 1 0 0 0 0 0 0 0 0 0
Nghost:             13 ave          13 max          13 min
Histogram: 1 0 0 0 0 0 0 0 0 0
Neighs:              0 ave           0 max           0 min
Histogram: 1 0 0 0 0 0 0 0 0 0
FullNghs:       112090 ave      112090 max      112090 min
Histogram: 1 0 0 0 0 0 0 0 0 0

Total # of neighbors = 112090
Ave neighs/atom = 160.12857
Ave special neighs/atom = 0
Neighbor list builds = 1056
Dangerous builds = 0
Total wall time: 0:49:35
